variables = x, y, z
zone N = 13725, E = 27369 F = FEPOINT, ET = TRIANGLE
0   1   0
-1   6.12323e-17   0
-6.12323e-17   6.12323e-17   1
0   -1   0
-6.12323e-17   6.12323e-17   -1
1   1   0
1   -1   -1.22465e-16
-0.0784591   0.996917   0
-0.156434   0.987688   0
-0.233445   0.97237   0
-0.309017   0.951057   0
-0.382683   0.92388   0
-0.45399   0.891007   0
-0.522499   0.85264   0
-0.587785   0.809017   0
-0.649448   0.760406   0
-0.707107   0.707107   0
-0.760406   0.649448   0
-0.809017   0.587785   0
-0.85264   0.522499   0
-0.891007   0.45399   0
-0.92388   0.382683   0
-0.951057   0.309017   0
-0.97237   0.233445   0
-0.987688   0.156434   0
-0.996917   0.0784591   0
-0.996917   6.12323e-17   0.0784591
-0.987688   6.12323e-17   0.156434
-0.97237   6.12323e-17   0.233445
-0.951057   -2.52786e-16   0.309017
-0.92388   6.12323e-17   0.382683
-0.891007   6.12323e-17   0.45399
-0.85264   6.12323e-17   0.522499
-0.809017   6.12323e-17   0.587785
-0.760406   6.12323e-17   0.649448
-0.707107   6.12323e-17   0.707107
-0.649448   6.12323e-17   0.760406
-0.587785   6.12323e-17   0.809017
-0.522499   6.12323e-17   0.85264
-0.45399   6.12323e-17   0.891007
-0.382683   6.12323e-17   0.92388
-0.309017   6.12323e-17   0.951057
-0.233445   6.12323e-17   0.97237
-0.156434   6.12323e-17   0.987688
-0.0784591   6.12323e-17   0.996917
-4.80423e-18   0.996917   0.0784591
-9.57885e-18   0.987688   0.156434
-1.42944e-17   0.97237   0.233445
-1.89218e-17   0.951057   0.309017
-2.34326e-17   0.92388   0.382683
-2.77989e-17   0.891007   0.45399
-3.19938e-17   0.85264   0.522499
-3.59915e-17   0.809017   0.587785
-3.97672e-17   0.760406   0.649448
-4.32978e-17   0.707107   0.707107
-4.65614e-17   0.649448   0.760406
-4.9538e-17   0.587785   0.809017
-5.22092e-17   0.522499   0.85264
-5.45584e-17   0.45399   0.891007
-5.65713e-17   0.382683   0.92388
-5.82354e-17   0.309017   0.951057
-5.95405e-17   0.233445   0.97237
-6.04785e-17   0.156434   0.987688
-6.10436e-17   0.0784591   0.996917
-0.0784591   -0.996917   0
-0.156434   -0.987688   0
-0.233445   -0.97237   0
-0.309017   -0.951057   0
-0.382683   -0.92388   0
-0.45399   -0.891007   0
-0.522499   -0.85264   0
-0.587785   -0.809017   0
-0.649448   -0.760406   0
-0.707107   -0.707107   0
-0.760406   -0.649448   0
-0.809017   -0.587785   0
-0.85264   -0.522499   0
-0.891007   -0.45399   0
-0.92388   -0.382683   0
-0.951057   -0.309017   0
-0.97237   -0.233445   0
-0.987688   -0.156434   0
-0.996917   -0.0784591   0
-4.80423e-18   -0.996917   0.0784591
-9.57885e-18   -0.987688   0.156434
-1.42944e-17   -0.97237   0.233445
-1.89218e-17   -0.951057   0.309017
-2.34326e-17   -0.92388   0.382683
-2.77989e-17   -0.891007   0.45399
-3.19938e-17   -0.85264   0.522499
-3.59915e-17   -0.809017   0.587785
-3.97672e-17   -0.760406   0.649448
-4.32978e-17   -0.707107   0.707107
-4.65614e-17   -0.649448   0.760406
-4.9538e-17   -0.587785   0.809017
-5.22092e-17   -0.522499   0.85264
-5.45584e-17   -0.45399   0.891007
-5.65713e-17   -0.382683   0.92388
-5.82354e-17   -0.309017   0.951057
-5.95405e-17   -0.233445   0.97237
-6.04785e-17   -0.156434   0.987688
-6.10436e-17   -0.0784591   0.996917
-0.996917   6.12323e-17   -0.0784591
-0.987688   6.12323e-17   -0.156434
-0.97237   6.12323e-17   -0.233445
-0.951057   -2.52786e-16   -0.309017
-0.92388   6.12323e-17   -0.382683
-0.891007   6.12323e-17   -0.45399
-0.85264   6.12323e-17   -0.522499
-0.809017   6.12323e-17   -0.587785
-0.760406   6.12323e-17   -0.649448
-0.707107   6.12323e-17   -0.707107
-0.649448   6.12323e-17   -0.760406
-0.587785   6.12323e-17   -0.809017
-0.522499   6.12323e-17   -0.85264
-0.45399   6.12323e-17   -0.891007
-0.382683   6.12323e-17   -0.92388
-0.309017   6.12323e-17   -0.951057
-0.233445   6.12323e-17   -0.97237
-0.156434   6.12323e-17   -0.987688
-0.0784591   6.12323e-17   -0.996917
-4.80423e-18   0.996917   -0.0784591
-9.57885e-18   0.987688   -0.156434
-1.42944e-17   0.97237   -0.233445
-1.89218e-17   0.951057   -0.309017
-2.34326e-17   0.92388   -0.382683
-2.77989e-17   0.891007   -0.45399
-3.19938e-17   0.85264   -0.522499
-3.59915e-17   0.809017   -0.587785
-3.97672e-17   0.760406   -0.649448
-4.32978e-17   0.707107   -0.707107
-4.65614e-17   0.649448   -0.760406
-4.9538e-17   0.587785   -0.809017
-5.22092e-17   0.522499   -0.85264
-5.45584e-17   0.45399   -0.891007
-5.65713e-17   0.382683   -0.92388
-5.82354e-17   0.309017   -0.951057
-5.95405e-17   0.233445   -0.97237
-6.04785e-17   0.156434   -0.987688
-6.10436e-17   0.0784591   -0.996917
-4.80423e-18   -0.996917   -0.0784591
-9.57885e-18   -0.987688   -0.156434
-1.42944e-17   -0.97237   -0.233445
-1.89218e-17   -0.951057   -0.309017
-2.34326e-17   -0.92388   -0.382683
-2.77989e-17   -0.891007   -0.45399
-3.19938e-17   -0.85264   -0.522499
-3.59915e-17   -0.809017   -0.587785
-3.97672e-17   -0.760406   -0.649448
-4.32978e-17   -0.707107   -0.707107
-4.65614e-17   -0.649448   -0.760406
-4.9538e-17   -0.587785   -0.809017
-5.22092e-17   -0.522499   -0.85264
-5.45584e-17   -0.45399   -0.891007
-5.65713e-17   -0.382683   -0.92388
-5.82354e-17   -0.309017   -0.951057
-5.95405e-17   -0.233445   -0.97237
-6.04785e-17   -0.156434   -0.987688
-6.10436e-17   -0.0784591   -0.996917
0.00666667   1   0
0.0133333   1   0
0.02   1   0
0.0266667   1   0
0.0333333   1   0
0.04   1   0
0.0466667   1   0
0.0533333   1   0
0.06   1   0
0.0666667   1   0
0.0733333   1   0
0.08   1   0
0.0866667   1   0
0.0933333   1   0
0.1   1   0
0.106667   1   0
0.113333   1   0
0.12   1   0
0.126667   1   0
0.133333   1   0
0.14   1   0
0.146667   1   0
0.153333   1   0
0.16   1   0
0.166667   1   0
0.173333   1   0
0.18   1   0
0.186667   1   0
0.193333   1   0
0.2   1   0
0.206667   1   0
0.213333   1   0
0.22   1   0
0.226667   1   0
0.233333   1   0
0.24   1   0
0.246667   1   0
0.253333   1   0
0.26   1   0
0.266667   1   0
0.273333   1   0
0.28   1   0
0.286667   1   0
0.293333   1   0
0.3   1   0
0.306667   1   0
0.313333   1   0
0.32   1   0
0.326667   1   0
0.333333   1   0
0.34   1   0
0.346667   1   0
0.353333   1   0
0.36   1   0
0.366667   1   0
0.373333   1   0
0.38   1   0
0.386667   1   0
0.393333   1   0
0.4   1   0
0.406667   1   0
0.413333   1   0
0.42   1   0
0.426667   1   0
0.433333   1   0
0.44   1   0
0.446667   1   0
0.453333   1   0
0.46   1   0
0.466667   1   0
0.473333   1   0
0.48   1   0
0.486667   1   0
0.493333   1   0
0.5   1   0
0.506667   1   0
0.513333   1   0
0.52   1   0
0.526667   1   0
0.533333   1   0
0.54   1   0
0.546667   1   0
0.553333   1   0
0.56   1   0
0.566667   1   0
0.573333   1   0
0.58   1   0
0.586667   1   0
0.593333   1   0
0.6   1   0
0.606667   1   0
0.613333   1   0
0.62   1   0
0.626667   1   0
0.633333   1   0
0.64   1   0
0.646667   1   0
0.653333   1   0
0.66   1   0
0.666667   1   0
0.673333   1   0
0.68   1   0
0.686667   1   0
0.693333   1   0
0.7   1   0
0.706667   1   0
0.713333   1   0
0.72   1   0
0.726667   1   0
0.733333   1   0
0.74   1   0
0.746667   1   0
0.753333   1   0
0.76   1   0
0.766667   1   0
0.773333   1   0
0.78   1   0
0.786667   1   0
0.793333   1   0
0.8   1   0
0.806667   1   0
0.813333   1   0
0.82   1   0
0.826667   1   0
0.833333   1   0
0.84   1   0
0.846667   1   0
0.853333   1   0
0.86   1   0
0.866667   1   0
0.873333   1   0
0.88   1   0
0.886667   1   0
0.893333   1   0
0.9   1   0
0.906667   1   0
0.913333   1   0
0.92   1   0
0.926667   1   0
0.933333   1   0
0.94   1   0
0.946667   1   0
0.953333   1   0
0.96   1   0
0.966667   1   0
0.973333   1   0
0.98   1   0
0.986667   1   0
0.993333   1   0
1   0.996917   -0.0784591
1   0.987688   -0.156434
1   0.97237   -0.233445
1   0.951057   -0.309017
1   0.92388   -0.382683
1   0.891007   -0.45399
1   0.85264   -0.522499
1   0.809017   -0.587785
1   0.760406   -0.649448
1   0.707107   -0.707107
1   0.649448   -0.760406
1   0.587785   -0.809017
1   0.522499   -0.85264
1   0.45399   -0.891007
1   0.382683   -0.92388
1   0.309017   -0.951057
1   0.233445   -0.97237
1   0.156434   -0.987688
1   0.0784591   -0.996917
1   6.12323e-17   -1
1   -0.0784591   -0.996917
1   -0.156434   -0.987688
1   -0.233445   -0.97237
1   -0.309017   -0.951057
1   -0.382683   -0.92388
1   -0.45399   -0.891007
1   -0.522499   -0.85264
1   -0.587785   -0.809017
1   -0.649448   -0.760406
1   -0.707107   -0.707107
1   -0.760406   -0.649448
1   -0.809017   -0.587785
1   -0.85264   -0.522499
1   -0.891007   -0.453991
1   -0.92388   -0.382683
1   -0.951057   -0.309017
1   -0.97237   -0.233445
1   -0.987688   -0.156434
1   -0.996917   -0.0784591
0.00666667   -1   -1.22465e-16
0.0133333   -1   -1.22465e-16
0.02   -1   -1.22465e-16
0.0266667   -1   -1.22465e-16
0.0333333   -1   -1.22465e-16
0.04   -1   -1.22465e-16
0.0466667   -1   -1.22465e-16
0.0533333   -1   -1.22465e-16
0.06   -1   -1.22465e-16
0.0666667   -1   -1.22465e-16
0.0733333   -1   -1.22465e-16
0.08   -1   -1.22465e-16
0.0866667   -1   -1.22465e-16
0.0933333   -1   -1.22465e-16
0.1   -1   -1.22465e-16
0.106667   -1   -1.22465e-16
0.113333   -1   -1.22465e-16
0.12   -1   -1.22465e-16
0.126667   -1   -1.22465e-16
0.133333   -1   -1.22465e-16
0.14   -1   -1.22465e-16
0.146667   -1   -1.22465e-16
0.153333   -1   -1.22465e-16
0.16   -1   -1.22465e-16
0.166667   -1   -1.22465e-16
0.173333   -1   -1.22465e-16
0.18   -1   -1.22465e-16
0.186667   -1   -1.22465e-16
0.193333   -1   -1.22465e-16
0.2   -1   -1.22465e-16
0.206667   -1   -1.22465e-16
0.213333   -1   -1.22465e-16
0.22   -1   -1.22465e-16
0.226667   -1   -1.22465e-16
0.233333   -1   -1.22465e-16
0.24   -1   -1.22465e-16
0.246667   -1   -1.22465e-16
0.253333   -1   -1.22465e-16
0.26   -1   -1.22465e-16
0.266667   -1   -1.22465e-16
0.273333   -1   -1.22465e-16
0.28   -1   -1.22465e-16
0.286667   -1   -1.22465e-16
0.293333   -1   -1.22465e-16
0.3   -1   -1.22465e-16
0.306667   -1   -1.22465e-16
0.313333   -1   -1.22465e-16
0.32   -1   -1.22465e-16
0.326667   -1   -1.22465e-16
0.333333   -1   -1.22465e-16
0.34   -1   -1.22465e-16
0.346667   -1   -1.22465e-16
0.353333   -1   -1.22465e-16
0.36   -1   -1.22465e-16
0.366667   -1   -1.22465e-16
0.373333   -1   -1.22465e-16
0.38   -1   -1.22465e-16
0.386667   -1   -1.22465e-16
0.393333   -1   -1.22465e-16
0.4   -1   -1.22465e-16
0.406667   -1   -1.22465e-16
0.413333   -1   -1.22465e-16
0.42   -1   -1.22465e-16
0.426667   -1   -1.22465e-16
0.433333   -1   -1.22465e-16
0.44   -1   -1.22465e-16
0.446667   -1   -1.22465e-16
0.453333   -1   -1.22465e-16
0.46   -1   -1.22465e-16
0.466667   -1   -1.22465e-16
0.473333   -1   -1.22465e-16
0.48   -1   -1.22465e-16
0.486667   -1   -1.22465e-16
0.493333   -1   -1.22465e-16
0.5   -1   -1.22465e-16
0.506667   -1   -1.22465e-16
0.513333   -1   -1.22465e-16
0.52   -1   -1.22465e-16
0.526667   -1   -1.22465e-16
0.533333   -1   -1.22465e-16
0.54   -1   -1.22465e-16
0.546667   -1   -1.22465e-16
0.553333   -1   -1.22465e-16
0.56   -1   -1.22465e-16
0.566667   -1   -1.22465e-16
0.573333   -1   -1.22465e-16
0.58   -1   -1.22465e-16
0.586667   -1   -1.22465e-16
0.593333   -1   -1.22465e-16
0.6   -1   -1.22465e-16
0.606667   -1   -1.22465e-16
0.613333   -1   -1.22465e-16
0.62   -1   -1.22465e-16
0.626667   -1   -1.22465e-16
0.633333   -1   -1.22465e-16
0.64   -1   -1.22465e-16
0.646667   -1   -1.22465e-16
0.653333   -1   -1.22465e-16
0.66   -1   -1.22465e-16
0.666667   -1   -1.22465e-16
0.673333   -1   -1.22465e-16
0.68   -1   -1.22465e-16
0.686667   -1   -1.22465e-16
0.693333   -1   -1.22465e-16
0.7   -1   -1.22465e-16
0.706667   -1   -1.22465e-16
0.713333   -1   -1.22465e-16
0.72   -1   -1.22465e-16
0.726667   -1   -1.22465e-16
0.733333   -1   -1.22465e-16
0.74   -1   -1.22465e-16
0.746667   -1   -1.22465e-16
0.753333   -1   -1.22465e-16
0.76   -1   -1.22465e-16
0.766667   -1   -1.22465e-16
0.773333   -1   -1.22465e-16
0.78   -1   -1.22465e-16
0.786667   -1   -1.22465e-16
0.793333   -1   -1.22465e-16
0.8   -1   -1.22465e-16
0.806667   -1   -1.22465e-16
0.813333   -1   -1.22465e-16
0.82   -1   -1.22465e-16
0.826667   -1   -1.22465e-16
0.833333   -1   -1.22465e-16
0.84   -1   -1.22465e-16
0.846667   -1   -1.22465e-16
0.853333   -1   -1.22465e-16
0.86   -1   -1.22465e-16
0.866667   -1   -1.22465e-16
0.873333   -1   -1.22465e-16
0.88   -1   -1.22465e-16
0.886667   -1   -1.22465e-16
0.893333   -1   -1.22465e-16
0.9   -1   -1.22465e-16
0.906667   -1   -1.22465e-16
0.913333   -1   -1.22465e-16
0.92   -1   -1.22465e-16
0.926667   -1   -1.22465e-16
0.933333   -1   -1.22465e-16
0.94   -1   -1.22465e-16
0.946667   -1   -1.22465e-16
0.953333   -1   -1.22465e-16
0.96   -1   -1.22465e-16
0.966667   -1   -1.22465e-16
0.973333   -1   -1.22465e-16
0.98   -1   -1.22465e-16
0.986667   -1   -1.22465e-16
0.993333   -1   -1.22465e-16
1   -0.996917   0.0784591
1   -0.987688   0.156434
1   -0.97237   0.233445
1   -0.951057   0.309017
1   -0.92388   0.382683
1   -0.891007   0.45399
1   -0.85264   0.522499
1   -0.809017   0.587785
1   -0.760406   0.649448
1   -0.707107   0.707107
1   -0.649448   0.760406
1   -0.587785   0.809017
1   -0.522499   0.85264
1   -0.45399   0.891007
1   -0.382683   0.92388
1   -0.309017   0.951057
1   -0.233445   0.97237
1   -0.156434   0.987688
1   -0.0784591   0.996917
1   3.75251e-16   1
1   0.0784591   0.996917
1   0.156434   0.987688
1   0.233445   0.97237
1   0.309017   0.951057
1   0.382683   0.92388
1   0.453991   0.891007
1   0.522499   0.85264
1   0.587785   0.809017
1   0.649448   0.760406
1   0.707107   0.707107
1   0.760406   0.649448
1   0.809017   0.587785
1   0.85264   0.522499
1   0.891007   0.45399
1   0.92388   0.382683
1   0.951057   0.309017
1   0.97237   0.233445
1   0.987688   0.156434
1   0.996917   0.0784591
-0.194033   -0.050783   0.97968
-0.224148   -0.0946666   0.969946
-0.264977   -0.0516935   0.962868
-0.681564   -0.0666623   0.728716
-0.630889   -0.0864566   0.771041
-0.795789   -0.204318   0.570066
-0.8336   -0.198756   0.515372
-0.827514   -0.150394   0.540927
-0.083667   -0.971061   0.223695
-0.0498736   -0.95954   0.277121
-0.904846   -0.411735   0.108292
-0.886307   -0.426407   0.180659
-0.871135   -0.4737   0.129353
-0.203064   -0.88171   0.425855
-0.255474   -0.865005   0.431855
-0.213078   -0.855826   0.471338
-0.0458591   -0.84759   0.528666
-0.0340236   -0.874494   0.483841
-0.0823677   -0.874045   0.478812
-0.514258   -0.121616   0.848969
-0.467517   -0.165252   0.868401
-0.50706   -0.190349   0.840629
-0.459384   -0.822076   0.336389
-0.51687   -0.783667   0.344546
-0.461993   -0.798317   0.386332
-0.0491552   -0.993642   0.101291
-0.0444949   -0.997941   0.0461885
-0.0948804   -0.994013   0.0541888
-0.604964   -0.485182   0.631361
-0.638067   -0.49896   0.586438
-0.652084   -0.441693   0.616194
-0.460323   -0.274037   0.844397
-0.497477   -0.240815   0.833381
-0.45931   -0.219032   0.860848
-0.952511   -0.070878   0.296142
-0.967727   -0.061413   0.244404
-0.445843   -0.66816   0.595639
-0.391194   -0.660046   0.641331
-0.40992   -0.706547   0.57685
-0.465964   -0.763527   0.447106
-0.408729   -0.80945   0.421583
-0.130267   -0.6724   0.728635
-0.0607969   -0.667682   0.74196
-0.0890487   -0.711217   0.697309
-0.373618   -0.255631   0.891663
-0.35031   -0.304724   0.885678
-0.402564   -0.312201   0.860507
-0.736172   -0.543965   0.402682
-0.72849   -0.583079   0.359613
-0.764043   -0.540696   0.351974
-0.670797   -0.740124   0.047413
-0.633853   -0.772211   0.0438264
-0.742506   -0.337605   0.578539
-0.72374   -0.289663   0.626335
-0.703167   -0.346273   0.621008
-0.874383   -0.0501118   0.482642
-0.888598   -0.104407   0.446646
-0.907798   -0.0514641   0.416239
-0.751646   -0.052725   0.657456
-0.779995   -0.0900363   0.619274
-0.794118   -0.0471997   0.605928
-0.0454445   -0.626477   0.778114
-0.0583861   -0.122591   0.990738
-0.107019   -0.0976421   0.989451
-0.0621036   -0.0587574   0.996339
-0.851491   -0.485006   0.199328
-0.813622   -0.526909   0.245734
-0.819891   -0.543529   0.179875
-0.0425358   -0.549964   0.834105
-0.0548521   -0.49671   0.866182
-0.0477595   -0.899428   0.434451
-0.514375   -0.533681   0.67127
-0.519096   -0.588704   0.61965
-0.563077   -0.53148   0.63283
-0.0641383   -0.920248   0.386043
-0.111193   -0.926419   0.359701
-0.105328   -0.900966   0.420912
-0.17602   -0.755753   0.630758
-0.158447   -0.713556   0.682446
-0.120096   -0.743588   0.657764
-0.822354   -0.556211   0.119847
-0.796902   -0.595947   0.0989691
-0.821333   -0.567399   0.0589113
-0.757224   -0.643146   0.11391
-0.783307   -0.619377   0.0529302
-0.311081   -0.588681   0.746112
-0.303818   -0.52523   0.794876
-0.247666   -0.556811   0.792858
-0.791279   -0.592077   0.152715
-0.783704   -0.58117   0.2192
-0.752357   -0.63198   0.185906
-0.127907   -0.0530479   0.990366
-0.165591   -0.10912   0.980139
-0.152611   -0.425064   0.892205
-0.221937   -0.416246   0.88175
-0.189123   -0.376193   0.907034
-0.113881   -0.810289   0.574859
-0.158882   -0.792436   0.588898
-0.115342   -0.776308   0.619711
-0.77821   -0.331712   0.53325
-0.792142   -0.362445   0.491065
-0.814212   -0.299721   0.497218
-0.507143   -0.763863   0.399148
-0.254648   -0.451982   0.854907
-0.291087   -0.397891   0.87003
-0.766763   -0.570442   0.294398
-0.905427   -0.327758   0.26977
-0.898245   -0.376862   0.226122
-0.928016   -0.30877   0.208443
-0.184691   -0.966968   0.175677
-0.215791   -0.949864   0.226259
-0.149284   -0.963223   0.22342
-0.683438   -0.464911   0.562824
-0.730318   -0.435128   0.526591
-0.705032   -0.398488   0.586633
-0.572314   -0.798019   0.18874
-0.565861   -0.81477   0.126301
-0.616123   -0.774748   0.141977
-0.523172   -0.834194   0.174392
-0.619806   -0.692509   0.36915
-0.581331   -0.697642   0.418748
-0.559732   -0.734931   0.382853
-0.0574124   -0.941353   0.332502
-0.23747   -0.959299   0.152818
-0.274227   -0.637312   0.720162
-0.325561   -0.645297   0.691088
-0.718634   -0.0686016   0.691996
-0.915461   -0.366833   0.165421
-0.907335   -0.214105   0.361805
-0.881095   -0.203239   0.427043
-0.876378   -0.24654   0.413739
-0.445497   -0.113846   0.888015
-0.665909   -0.521199   0.533775
-0.620672   -0.551258   0.557568
-0.667442   -0.667527   0.330043
-0.674613   -0.631611   0.382054
-0.531456   -0.814042   0.234286
-0.416252   -0.906489   0.070788
-0.463859   -0.879325   0.107806
-0.420266   -0.8955   0.146481
-0.978152   -0.150404   0.143519
-0.970804   -0.208901   0.117894
-0.984563   -0.152959   0.0850876
-0.340473   -0.0635941   0.938101
-0.162103   -0.903366   0.397056
-0.226573   -0.900427   0.371343
-0.664479   -0.143596   0.733381
-0.710438   -0.165935   0.683917
-0.704807   -0.112317   0.700451
-0.856245   -0.341838   0.387287
-0.825938   -0.347497   0.443929
-0.824349   -0.396199   0.404321
-0.115931   -0.15289   0.98142
-0.0631748   -0.192461   0.979269
-0.550125   -0.784842   0.285283
-0.493271   -0.82086   0.287875
-0.547554   -0.620537   0.561353
-0.49498   -0.645932   0.581177
-0.63167   -0.320782   0.705756
-0.677278   -0.273724   0.682913
-0.629124   -0.264177   0.731036
-0.572253   -0.31942   0.755313
-0.518782   -0.284243   0.80627
-0.511041   -0.341123   0.788969
-0.85099   -0.518213   0.0852691
-0.327985   -0.683554   0.652059
-0.347318   -0.715068   0.606669
-0.227048   -0.714935   0.6613
-0.243153   -0.755582   0.608254
-0.777381   -0.279313   0.563617
-0.815234   -0.246072   0.524254
-0.865239   -0.163366   0.473997
-0.854616   -0.10025   0.509491
-0.548558   -0.0547768   0.834316
-0.577709   -0.10537   0.809413
-0.599503   -0.0476969   0.79895
-0.460623   -0.625534   0.629709
-0.569177   -0.639445   0.516863
-0.595385   -0.598449   0.536075
-0.484807   -0.0578037   0.872709
-0.318561   -0.171999   0.932167
-0.344371   -0.1262   0.930313
-0.280526   -0.11706   0.952682
-0.263886   -0.173613   0.948801
-0.284369   -0.221058   0.932881
-0.576617   -0.781213   0.239206
-0.850913   -0.235422   0.4696
-0.852732   -0.2928   0.432568
-0.214564   -0.211215   0.953599
-0.30879   -0.462307   0.831217
-0.353204   -0.53807   0.765329
-0.358638   -0.4902   0.794407
-0.367072   -0.440671   0.819187
-0.343532   -0.410468   0.844691
-0.287855   -0.718167   0.633542
-0.300054   -0.754907   0.583166
-0.533969   -0.844205   0.0468516
-0.929425   -0.364446   0.0578681
-0.908233   -0.277418   0.313292
-0.924908   -0.276772   0.260657
-0.929813   -0.228581   0.288443
-0.934532   -0.0557321   0.351489
-0.224595   -0.927482   0.298889
-0.168184   -0.928077   0.332244
-0.172278   -0.946348   0.273396
-0.559069   -0.48317   0.673787
-0.504704   -0.486488   0.713164
-0.134447   -0.222835   0.965541
-0.168512   -0.167954   0.971285
-0.186589   -0.574499   0.796954
-0.207052   -0.528848   0.823073
-0.35007   -0.35865   0.865345
-0.301207   -0.328129   0.895324
-0.342939   -0.937257   0.0627842
-0.29928   -0.945905   0.125283
-0.286784   -0.95646   0.0542141
-0.557097   -0.168085   0.813259
-0.583725   -0.202266   0.786354
-0.609491   -0.151247   0.778232
-0.907052   -0.41832   0.0475939
-0.881789   -0.467564   0.0619041
-0.356582   -0.843599   0.401485
-0.362078   -0.818202   0.446593
-0.311554   -0.840536   0.443208
-0.407987   -0.837156   0.364302
-0.350402   -0.871917   0.342021
-0.416272   -0.862317   0.288318
-0.564588   -0.676611   0.472691
-0.524734   -0.666085   0.53008
-0.497251   -0.714061   0.492807
-0.530725   -0.727022   0.435626
-0.899379   -0.156176   0.408322
-0.776386   -0.499015   0.384977
-0.784279   -0.446317   0.430938
-0.743251   -0.498342   0.446356
-0.241017   -0.96684   0.0844465
-0.943302   -0.23999   0.229318
-0.0639632   -0.750348   0.657941
-0.916855   -0.105598   0.385002
-0.283932   -0.902033   0.325143
-0.687274   -0.673128   0.273044
-0.713098   -0.626013   0.315591
-0.738473   -0.625486   0.251842
-0.112872   -0.950728   0.288749
-0.744509   -0.665666   0.0509458
-0.515993   -0.850194   0.10451
-0.470767   -0.867258   0.161993
-0.475555   -0.849583   0.228159
-0.422979   -0.880963   0.212116
-0.435346   -0.73802   0.515558
-0.361872   -0.756838   0.544285
-0.395171   -0.783875   0.478936
-0.403088   -0.385943   0.8298
-0.460732   -0.333079   0.822669
-0.948329   -0.189558   0.25444
-0.935963   -0.170984   0.307795
-0.675112   -0.328358   0.66061
-0.754843   -0.380065   0.534568
-0.0958537   -0.98932   0.109811
-0.129439   -0.979521   0.154221
-0.0591637   -0.985089   0.161552
-0.993171   -0.0971791   0.0645639
-0.986127   -0.103365   0.129883
-0.982102   -0.0568573   0.179562
-0.745516   -0.116148   0.656289
-0.541351   -0.225288   0.810052
-0.250541   -0.28134   0.926325
-0.490856   -0.437334   0.753525
-0.549447   -0.431285   0.715613
-0.531721   -0.382769   0.755487
-0.202947   -0.785401   0.584771
-0.249845   -0.790815   0.558739
-0.19031   -0.974709   0.117149
-0.603276   -0.749639   0.272213
-0.62299   -0.753268   0.210882
-0.665073   -0.383217   0.640954
-0.845574   -0.514584   0.142156
-0.87782   -0.383164   0.287432
-0.882707   -0.334912   0.329639
-0.0594347   -0.789956   0.610276
-0.635978   -0.70793   0.307192
-0.581976   -0.743925   0.328449
-0.646165   -0.718974   0.256022
-0.964648   -0.256596   0.060107
-0.978444   -0.199451   0.0535429
-0.107177   -0.501323   0.858597
-0.0975736   -0.455602   0.88482
-0.252254   -0.502104   0.8272
-0.277554   -0.924687   0.260611
-0.281588   -0.939219   0.19641
-0.9395   -0.312439   0.140435
-0.376991   -0.894567   0.240059
-0.330312   -0.927589   0.174563
-0.374618   -0.907679   0.189158
-0.330235   -0.916704   0.224939
-0.0649658   -0.821906   0.565906
-0.468928   -0.388967   0.792976
-0.800258   -0.39434   0.451756
-0.419783   -0.249524   0.872651
-0.276559   -0.678559   0.680495
-0.0914139   -0.543615   0.834342
-0.150207   -0.529244   0.835068
-0.0674299   -0.589672   0.804823
-0.938766   -0.113067   0.325475
-0.921563   -0.151533   0.357434
-0.714206   -0.66435   0.220338
-0.957661   -0.128287   0.257735
-0.963782   -0.182877   0.194113
-0.838404   -0.477851   0.262177
-0.210312   -0.665273   0.716366
-0.788101   -0.139204   0.599599
-0.816442   -0.0944169   0.569655
-0.600566   -0.528133   0.60033
-0.468569   -0.69194   0.549238
-0.333684   -0.803829   0.492456
-0.635993   -0.364559   0.680154
-0.609697   -0.421863   0.671045
-0.610214   -0.626463   0.484956
-0.152139   -0.871798   0.465641
-0.997565   -0.045736   0.0526536
-0.952224   -0.254791   0.168375
-0.0991862   -0.630278   0.770008
-0.658548   -0.604132   0.448707
-0.620909   -0.655472   0.429916
-0.185175   -0.825982   0.532413
-0.136533   -0.359856   0.922964
-0.190627   -0.322503   0.927175
-0.129828   -0.296591   0.946139
-0.816371   -0.448991   0.363243
-0.97487   -0.114158   0.191304
-0.992459   -0.0502345   0.111811
-0.603806   -0.793131   0.0797526
-0.318889   -0.267681   0.909207
-0.338012   -0.219805   0.915114
-0.755144   -0.237131   0.611168
-0.717539   -0.227526   0.658308
-0.106805   -0.844356   0.525029
-0.19552   -0.979096   0.0560614
-0.805437   -0.50205   0.314989
-0.126801   -0.583536   0.802127
-0.164747   -0.624111   0.763769
-0.365252   -0.921856   0.129513
-0.698608   -0.583475   0.41413
-0.956267   -0.269514   0.113648
-0.946445   -0.312666   0.080514
-0.219218   -0.145294   0.964797
-0.625764   -0.205641   0.752417
-0.650639   -0.75368   0.0929257
-0.665514   -0.73036   0.153838
-0.710878   -0.488772   0.505721
-0.141871   -0.47719   0.867273
-0.19683   -0.477201   0.856468
-0.48632   -0.87209   0.054333
-0.836445   -0.047946   0.545949
-0.264905   -0.827469   0.495096
-0.08384   -0.400539   0.912436
-0.0679284   -0.334985   0.939772
-0.144047   -0.986161   0.0820803
-0.748239   -0.457666   0.480291
-0.579454   -0.251095   0.775361
-0.59027   -0.373064   0.715824
-0.403602   -0.513912   0.756967
-0.421039   -0.450214   0.787422
-0.675972   -0.704968   0.214666
-0.561113   -0.824558   0.0724995
-0.368032   -0.615124   0.697262
-0.423171   -0.598509   0.68023
-0.385718   -0.567508   0.727431
-0.928203   -0.35533   0.110363
-0.852051   -0.392505   0.346337
-0.882447   -0.285059   0.374203
-0.416367   -0.0556686   0.907491
-0.388145   -0.106552   0.915418
-0.047343   -0.438737   0.897367
-0.753697   -0.182458   0.631387
-0.643668   -0.575043   0.504993
-0.574924   -0.571817   0.585225
-0.868367   -0.431025   0.245268
-0.672342   -0.213933   0.708652
-0.232966   -0.609744   0.757588
-0.183156   -0.266682   0.946221
-0.693749   -0.547746   0.467639
-0.297058   -0.872673   0.387555
-0.339285   -0.897709   0.281078
-0.398332   -0.17908   0.89959
-0.45541   -0.4868   0.745405
-0.47315   -0.578739   0.664222
-0.704845   -0.703676   0.0896304
-0.71331   -0.681352   0.16416
-0.769418   -0.413909   0.486492
-0.84536   -0.43985   0.303146
-0.0679559   -0.266427   0.961456
-0.242285   -0.354067   0.903291
-0.45243   -0.541327   0.708712
-0.303104   -0.78755   0.536557
-0.0744413   -0.888159   -0.453466
-0.0863212   -0.90964   -0.406329
-0.0443862   -0.909837   -0.412586
-0.529881   -0.439264   -0.725447
-0.497022   -0.397996   -0.771082
-0.548614   -0.356914   -0.756065
-0.349316   -0.568874   -0.744554
-0.322263   -0.62021   -0.715182
-0.285785   -0.58566   -0.758505
-0.522254   -0.828123   -0.203624
-0.516963   -0.81651   -0.257025
-0.56586   -0.795419   -0.217051
-0.955315   -0.127027   -0.266903
-0.940722   -0.164763   -0.296471
-0.933987   -0.123773   -0.335184
-0.737822   -0.451817   -0.501477
-0.695548   -0.496186   -0.519627
-0.716082   -0.416611   -0.560055
-0.461007   -0.0816671   -0.883631
-0.500505   -0.0458515   -0.864519
-0.517481   -0.106061   -0.849096
-0.761415   -0.151158   -0.630395
-0.723239   -0.143537   -0.675517
-0.74986   -0.0963879   -0.654537
-0.880391   -0.46665   -0.0845578
-0.884037   -0.446886   -0.137006
-0.911847   -0.397728   -0.10172
-0.0811848   -0.329207   -0.940761
-0.115514   -0.397619   -0.910251
-0.0510003   -0.372579   -0.926598
-0.895364   -0.210932   -0.392213
-0.921022   -0.182329   -0.3442
-0.910663   -0.230844   -0.342642
-0.703474   -0.601568   -0.378471
-0.68478   -0.640867   -0.346939
-0.658767   -0.638396   -0.398091
-0.826014   -0.0501381   -0.561415
-0.780875   -0.0482738   -0.622819
-0.64818   -0.0732183   -0.757959
-0.687889   -0.0438821   -0.724488
-0.327063   -0.0498221   -0.943688
-0.269993   -0.0522702   -0.961442
-0.981656   -0.188217   -0.0304422
-0.824483   -0.563287   -0.0541768
-0.196106   -0.979363   -0.0489017
-0.255291   -0.964972   -0.0604565
-0.0591892   -0.995742   -0.070673
-0.133371   -0.988287   -0.0741618
-0.446945   -0.386988   -0.806524
-0.392328   -0.406412   -0.825172
-0.400769   -0.345292   -0.848621
-0.605622   -0.113209   -0.787658
-0.568243   -0.0959994   -0.817241
-0.602879   -0.054941   -0.795938
-0.390154   -0.681243   -0.619425
-0.330193   -0.690972   -0.643064
-0.355768   -0.650423   -0.671103
-0.0555663   -0.429366   -0.90142
-0.470557   -0.829635   -0.30047
-0.513783   -0.800481   -0.308639
-0.997351   -0.0477489   -0.0548664
-0.77271   -0.304094   -0.557178
-0.742133   -0.303642   -0.597528
-0.772546   -0.258597   -0.579914
-0.0500055   -0.0513169   -0.99743
-0.0603858   -0.858185   -0.509777
-0.124193   -0.861094   -0.493045
-0.0962534   -0.777215   -0.62183
-0.150927   -0.751897   -0.641772
-0.159697   -0.789827   -0.592175
-0.559915   -0.78071   -0.277466
-0.858347   -0.510674   -0.049518
-0.84026   -0.532393   -0.102567
-0.169779   -0.830042   -0.53123
-0.110247   -0.825371   -0.553722
-0.109169   -0.519712   -0.847338
-0.144834   -0.568205   -0.810041
-0.0701692   -0.557858   -0.826965
-0.433664   -0.802773   -0.409256
-0.492522   -0.769356   -0.406833
-0.480906   -0.801983   -0.354335
-0.36343   -0.886464   -0.286533
-0.309537   -0.905366   -0.290687
-0.330098   -0.883449   -0.332497
-0.987416   -0.150068   -0.0498941
-0.447902   -0.506431   -0.736825
-0.408691   -0.490348   -0.76976
-0.460266   -0.452418   -0.763854
-0.375705   -0.861406   -0.341797
-0.328929   -0.862696   -0.384137
-0.722405   -0.55421   -0.413501
-0.701464   -0.540844   -0.46415
-0.739607   -0.498763   -0.451903
-0.628504   -0.463814   -0.624386
-0.67221   -0.461127   -0.579219
-0.636986   -0.522463   -0.566818
-0.465664   -0.215404   -0.858346
-0.508271   -0.168068   -0.844638
-0.521836   -0.221134   -0.823885
-0.41754   -0.746743   -0.517722